# Probe 0 (-74 -92 2)
# Probe 1 (-74 -86.935 2)
# Probe 2 (-74 -81.871 2)
# Probe 3 (-74 -76.806 2)
# Probe 4 (-74 -71.742 2)
# Probe 5 (-74 -66.677 2)
# Probe 6 (-74 -61.613 2)
# Probe 7 (-74 -56.548 2)
# Probe 8 (-74 -51.484 2)
# Probe 9 (-74 -46.419 2)
# Probe 10 (-74 -41.355 2)
# Probe 11 (-74 -36.29 2)
# Probe 12 (-74 -31.226 2)
# Probe 13 (-74 -26.161 2)
# Probe 14 (-74 -21.097 2)
# Probe 15 (-74 -16.032 2)
# Probe 16 (-74 -10.968 2)
# Probe 17 (-74 -5.903 2)
# Probe 18 (-74 -0.839 2)
# Probe 19 (-74 4.226 2)
# Probe 20 (-74 9.29 2)
# Probe 21 (-74 14.355 2)
# Probe 22 (-74 19.419 2)
# Probe 23 (-74 24.484 2)
# Probe 24 (-74 29.548 2)
# Probe 25 (-74 34.613 2)
# Probe 26 (-74 39.677 2)
# Probe 27 (-74 44.742 2)
# Probe 28 (-74 49.806 2)
# Probe 29 (-74 54.871 2)
# Probe 30 (-74 59.935 2)
# Probe 31 (-74 65 2)
# Probe 32 (-68.879 -92 2)
# Probe 33 (-68.879 -86.935 2)
# Probe 34 (-68.879 -81.871 2)
# Probe 35 (-68.879 -76.806 2)
# Probe 36 (-68.879 -71.742 2)
# Probe 37 (-68.879 -66.677 2)
# Probe 38 (-68.879 -61.613 2)
# Probe 39 (-68.879 -56.548 2)
# Probe 40 (-68.879 -51.484 2)
# Probe 41 (-68.879 -46.419 2)
# Probe 42 (-68.879 -41.355 2)
# Probe 43 (-68.879 -36.29 2)
# Probe 44 (-68.879 -31.226 2)
# Probe 45 (-68.879 -26.161 2)
# Probe 46 (-68.879 -21.097 2)
# Probe 47 (-68.879 -16.032 2)
# Probe 48 (-68.879 -10.968 2)
# Probe 49 (-68.879 -5.903 2)
# Probe 50 (-68.879 -0.839 2)
# Probe 51 (-68.879 4.226 2)
# Probe 52 (-68.879 9.29 2)
# Probe 53 (-68.879 14.355 2)
# Probe 54 (-68.879 19.419 2)
# Probe 55 (-68.879 24.484 2)
# Probe 56 (-68.879 29.548 2)
# Probe 57 (-68.879 34.613 2)
# Probe 58 (-68.879 39.677 2)
# Probe 59 (-68.879 44.742 2)
# Probe 60 (-68.879 49.806 2)
# Probe 61 (-68.879 54.871 2)
# Probe 62 (-68.879 59.935 2)
# Probe 63 (-68.879 65 2)
# Probe 64 (-63.758 -92 2)
# Probe 65 (-63.758 -86.935 2)
# Probe 66 (-63.758 -81.871 2)
# Probe 67 (-63.758 -76.806 2)
# Probe 68 (-63.758 -71.742 2)
# Probe 69 (-63.758 -66.677 2)
# Probe 70 (-63.758 -61.613 2)
# Probe 71 (-63.758 -56.548 2)
# Probe 72 (-63.758 -51.484 2)
# Probe 73 (-63.758 -46.419 2)
# Probe 74 (-63.758 -41.355 2)
# Probe 75 (-63.758 -36.29 2)
# Probe 76 (-63.758 -31.226 2)
# Probe 77 (-63.758 -26.161 2)
# Probe 78 (-63.758 -21.097 2)
# Probe 79 (-63.758 -16.032 2)
# Probe 80 (-63.758 -10.968 2)
# Probe 81 (-63.758 -5.903 2)
# Probe 82 (-63.758 -0.839 2)
# Probe 83 (-63.758 4.226 2)
# Probe 84 (-63.758 9.29 2)
# Probe 85 (-63.758 14.355 2)
# Probe 86 (-63.758 19.419 2)
# Probe 87 (-63.758 24.484 2)
# Probe 88 (-63.758 29.548 2)
# Probe 89 (-63.758 34.613 2)
# Probe 90 (-63.758 39.677 2)
# Probe 91 (-63.758 44.742 2)
# Probe 92 (-63.758 49.806 2)
# Probe 93 (-63.758 54.871 2)
# Probe 94 (-63.758 59.935 2)
# Probe 95 (-63.758 65 2)
# Probe 96 (-58.636 -92 2)
# Probe 97 (-58.636 -86.935 2)
# Probe 98 (-58.636 -81.871 2)
# Probe 99 (-58.636 -76.806 2)
# Probe 100 (-58.636 -71.742 2)
# Probe 101 (-58.636 -66.677 2)
# Probe 102 (-58.636 -61.613 2)
# Probe 103 (-58.636 -56.548 2)
# Probe 104 (-58.636 -51.484 2)
# Probe 105 (-58.636 -46.419 2)
# Probe 106 (-58.636 -41.355 2)
# Probe 107 (-58.636 -36.29 2)
# Probe 108 (-58.636 -31.226 2)
# Probe 109 (-58.636 -26.161 2)
# Probe 110 (-58.636 -21.097 2)
# Probe 111 (-58.636 -16.032 2)
# Probe 112 (-58.636 -10.968 2)
# Probe 113 (-58.636 -5.903 2)
# Probe 114 (-58.636 -0.839 2)
# Probe 115 (-58.636 4.226 2)
# Probe 116 (-58.636 9.29 2)
# Probe 117 (-58.636 14.355 2)
# Probe 118 (-58.636 19.419 2)
# Probe 119 (-58.636 24.484 2)
# Probe 120 (-58.636 29.548 2)
# Probe 121 (-58.636 34.613 2)
# Probe 122 (-58.636 39.677 2)
# Probe 123 (-58.636 44.742 2)
# Probe 124 (-58.636 49.806 2)
# Probe 125 (-58.636 54.871 2)
# Probe 126 (-58.636 59.935 2)
# Probe 127 (-58.636 65 2)
# Probe 128 (-53.515 -92 2)
# Probe 129 (-53.515 -86.935 2)
# Probe 130 (-53.515 -81.871 2)
# Probe 131 (-53.515 -76.806 2)
# Probe 132 (-53.515 -71.742 2)
# Probe 133 (-53.515 -66.677 2)
# Probe 134 (-53.515 -61.613 2)
# Probe 135 (-53.515 -56.548 2)
# Probe 136 (-53.515 -51.484 2)
# Probe 137 (-53.515 -46.419 2)
# Probe 138 (-53.515 -41.355 2)
# Probe 139 (-53.515 -36.29 2)
# Probe 140 (-53.515 -31.226 2)
# Probe 141 (-53.515 -26.161 2)
# Probe 142 (-53.515 -21.097 2)
# Probe 143 (-53.515 -16.032 2)
# Probe 144 (-53.515 -10.968 2)
# Probe 145 (-53.515 -5.903 2)
# Probe 146 (-53.515 -0.839 2)
# Probe 147 (-53.515 4.226 2)
# Probe 148 (-53.515 9.29 2)
# Probe 149 (-53.515 14.355 2)
# Probe 150 (-53.515 19.419 2)
# Probe 151 (-53.515 24.484 2)
# Probe 152 (-53.515 29.548 2)
# Probe 153 (-53.515 34.613 2)
# Probe 154 (-53.515 39.677 2)
# Probe 155 (-53.515 44.742 2)
# Probe 156 (-53.515 49.806 2)
# Probe 157 (-53.515 54.871 2)
# Probe 158 (-53.515 59.935 2)
# Probe 159 (-53.515 65 2)
# Probe 160 (-48.394 -92 2)
# Probe 161 (-48.394 -86.935 2)
# Probe 162 (-48.394 -81.871 2)
# Probe 163 (-48.394 -76.806 2)
# Probe 164 (-48.394 -71.742 2)
# Probe 165 (-48.394 -66.677 2)
# Probe 166 (-48.394 -61.613 2)
# Probe 167 (-48.394 -56.548 2)
# Probe 168 (-48.394 -51.484 2)
# Probe 169 (-48.394 -46.419 2)
# Probe 170 (-48.394 -41.355 2)
# Probe 171 (-48.394 -36.29 2)
# Probe 172 (-48.394 -31.226 2)
# Probe 173 (-48.394 -26.161 2)
# Probe 174 (-48.394 -21.097 2)
# Probe 175 (-48.394 -16.032 2)
# Probe 176 (-48.394 -10.968 2)
# Probe 177 (-48.394 -5.903 2)
# Probe 178 (-48.394 -0.839 2)
# Probe 179 (-48.394 4.226 2)
# Probe 180 (-48.394 9.29 2)
# Probe 181 (-48.394 14.355 2)
# Probe 182 (-48.394 19.419 2)
# Probe 183 (-48.394 24.484 2)
# Probe 184 (-48.394 29.548 2)
# Probe 185 (-48.394 34.613 2)
# Probe 186 (-48.394 39.677 2)
# Probe 187 (-48.394 44.742 2)
# Probe 188 (-48.394 49.806 2)
# Probe 189 (-48.394 54.871 2)
# Probe 190 (-48.394 59.935 2)
# Probe 191 (-48.394 65 2)
# Probe 192 (-43.273 -92 2)
# Probe 193 (-43.273 -86.935 2)
# Probe 194 (-43.273 -81.871 2)
# Probe 195 (-43.273 -76.806 2)
# Probe 196 (-43.273 -71.742 2)
# Probe 197 (-43.273 -66.677 2)
# Probe 198 (-43.273 -61.613 2)
# Probe 199 (-43.273 -56.548 2)
# Probe 200 (-43.273 -51.484 2)
# Probe 201 (-43.273 -46.419 2)
# Probe 202 (-43.273 -41.355 2)
# Probe 203 (-43.273 -36.29 2)
# Probe 204 (-43.273 -31.226 2)
# Probe 205 (-43.273 -26.161 2)
# Probe 206 (-43.273 -21.097 2)
# Probe 207 (-43.273 -16.032 2)
# Probe 208 (-43.273 -10.968 2)
# Probe 209 (-43.273 -5.903 2)
# Probe 210 (-43.273 -0.839 2)
# Probe 211 (-43.273 4.226 2)
# Probe 212 (-43.273 9.29 2)
# Probe 213 (-43.273 14.355 2)
# Probe 214 (-43.273 19.419 2)
# Probe 215 (-43.273 24.484 2)
# Probe 216 (-43.273 29.548 2)
# Probe 217 (-43.273 34.613 2)
# Probe 218 (-43.273 39.677 2)
# Probe 219 (-43.273 44.742 2)
# Probe 220 (-43.273 49.806 2)
# Probe 221 (-43.273 54.871 2)
# Probe 222 (-43.273 59.935 2)
# Probe 223 (-43.273 65 2)
# Probe 224 (-38.152 -92 2)
# Probe 225 (-38.152 -86.935 2)
# Probe 226 (-38.152 -81.871 2)
# Probe 227 (-38.152 -76.806 2)
# Probe 228 (-38.152 -71.742 2)
# Probe 229 (-38.152 -66.677 2)
# Probe 230 (-38.152 -61.613 2)
# Probe 231 (-38.152 -56.548 2)
# Probe 232 (-38.152 -51.484 2)
# Probe 233 (-38.152 -46.419 2)
# Probe 234 (-38.152 -41.355 2)
# Probe 235 (-38.152 -36.29 2)
# Probe 236 (-38.152 -31.226 2)
# Probe 237 (-38.152 -26.161 2)
# Probe 238 (-38.152 -21.097 2)
# Probe 239 (-38.152 -16.032 2)
# Probe 240 (-38.152 -10.968 2)
# Probe 241 (-38.152 -5.903 2)
# Probe 242 (-38.152 -0.839 2)
# Probe 243 (-38.152 4.226 2)
# Probe 244 (-38.152 9.29 2)
# Probe 245 (-38.152 14.355 2)
# Probe 246 (-38.152 19.419 2)
# Probe 247 (-38.152 24.484 2)
# Probe 248 (-38.152 29.548 2)
# Probe 249 (-38.152 34.613 2)
# Probe 250 (-38.152 39.677 2)
# Probe 251 (-38.152 44.742 2)
# Probe 252 (-38.152 49.806 2)
# Probe 253 (-38.152 54.871 2)
# Probe 254 (-38.152 59.935 2)
# Probe 255 (-38.152 65 2)
# Probe 256 (-33.03 -92 2)
# Probe 257 (-33.03 -86.935 2)
# Probe 258 (-33.03 -81.871 2)
# Probe 259 (-33.03 -76.806 2)
# Probe 260 (-33.03 -71.742 2)
# Probe 261 (-33.03 -66.677 2)
# Probe 262 (-33.03 -61.613 2)
# Probe 263 (-33.03 -56.548 2)
# Probe 264 (-33.03 -51.484 2)
# Probe 265 (-33.03 -46.419 2)
# Probe 266 (-33.03 -41.355 2)
# Probe 267 (-33.03 -36.29 2)
# Probe 268 (-33.03 -31.226 2)
# Probe 269 (-33.03 -26.161 2)
# Probe 270 (-33.03 -21.097 2)
# Probe 271 (-33.03 -16.032 2)
# Probe 272 (-33.03 -10.968 2)
# Probe 273 (-33.03 -5.903 2)
# Probe 274 (-33.03 -0.839 2)
# Probe 275 (-33.03 4.226 2)
# Probe 276 (-33.03 9.29 2)
# Probe 277 (-33.03 14.355 2)
# Probe 278 (-33.03 19.419 2)
# Probe 279 (-33.03 24.484 2)
# Probe 280 (-33.03 29.548 2)
# Probe 281 (-33.03 34.613 2)
# Probe 282 (-33.03 39.677 2)
# Probe 283 (-33.03 44.742 2)
# Probe 284 (-33.03 49.806 2)
# Probe 285 (-33.03 54.871 2)
# Probe 286 (-33.03 59.935 2)
# Probe 287 (-33.03 65 2)
# Probe 288 (-27.909 -92 2)
# Probe 289 (-27.909 -86.935 2)
# Probe 290 (-27.909 -81.871 2)
# Probe 291 (-27.909 -76.806 2)
# Probe 292 (-27.909 -71.742 2)
# Probe 293 (-27.909 -66.677 2)
# Probe 294 (-27.909 -61.613 2)
# Probe 295 (-27.909 -56.548 2)
# Probe 296 (-27.909 -51.484 2)
# Probe 297 (-27.909 -46.419 2)
# Probe 298 (-27.909 -41.355 2)
# Probe 299 (-27.909 -36.29 2)
# Probe 300 (-27.909 -31.226 2)
# Probe 301 (-27.909 -26.161 2)
# Probe 302 (-27.909 -21.097 2)
# Probe 303 (-27.909 -16.032 2)
# Probe 304 (-27.909 -10.968 2)
# Probe 305 (-27.909 -5.903 2)
# Probe 306 (-27.909 -0.839 2)
# Probe 307 (-27.909 4.226 2)
# Probe 308 (-27.909 9.29 2)
# Probe 309 (-27.909 14.355 2)
# Probe 310 (-27.909 19.419 2)
# Probe 311 (-27.909 24.484 2)
# Probe 312 (-27.909 29.548 2)
# Probe 313 (-27.909 34.613 2)
# Probe 314 (-27.909 39.677 2)
# Probe 315 (-27.909 44.742 2)
# Probe 316 (-27.909 49.806 2)
# Probe 317 (-27.909 54.871 2)
# Probe 318 (-27.909 59.935 2)
# Probe 319 (-27.909 65 2)
# Probe 320 (-22.788 -92 2)
# Probe 321 (-22.788 -86.935 2)
# Probe 322 (-22.788 -81.871 2)
# Probe 323 (-22.788 -76.806 2)
# Probe 324 (-22.788 -71.742 2)
# Probe 325 (-22.788 -66.677 2)
# Probe 326 (-22.788 -61.613 2)
# Probe 327 (-22.788 -56.548 2)
# Probe 328 (-22.788 -51.484 2)
# Probe 329 (-22.788 -46.419 2)
# Probe 330 (-22.788 24.484 2)
# Probe 331 (-22.788 29.548 2)
# Probe 332 (-22.788 34.613 2)
# Probe 333 (-22.788 39.677 2)
# Probe 334 (-22.788 44.742 2)
# Probe 335 (-22.788 49.806 2)
# Probe 336 (-22.788 54.871 2)
# Probe 337 (-22.788 59.935 2)
# Probe 338 (-22.788 65 2)
# Probe 339 (-17.667 -92 2)
# Probe 340 (-17.667 -86.935 2)
# Probe 341 (-17.667 -81.871 2)
# Probe 342 (-17.667 -76.806 2)
# Probe 343 (-17.667 -71.742 2)
# Probe 344 (-17.667 -66.677 2)
# Probe 345 (-17.667 -61.613 2)
# Probe 346 (-17.667 -56.548 2)
# Probe 347 (-17.667 -51.484 2)
# Probe 348 (-17.667 -46.419 2)
# Probe 349 (-17.667 24.484 2)
# Probe 350 (-17.667 29.548 2)
# Probe 351 (-17.667 34.613 2)
# Probe 352 (-17.667 39.677 2)
# Probe 353 (-17.667 44.742 2)
# Probe 354 (-17.667 49.806 2)
# Probe 355 (-17.667 54.871 2)
# Probe 356 (-17.667 59.935 2)
# Probe 357 (-17.667 65 2)
# Probe 358 (-12.545 -92 2)
# Probe 359 (-12.545 -86.935 2)
# Probe 360 (-12.545 -81.871 2)
# Probe 361 (-12.545 -76.806 2)
# Probe 362 (-12.545 -71.742 2)
# Probe 363 (-12.545 -66.677 2)
# Probe 364 (-12.545 -61.613 2)
# Probe 365 (-12.545 -56.548 2)
# Probe 366 (-12.545 -51.484 2)
# Probe 367 (-12.545 -46.419 2)
# Probe 368 (-12.545 -26.161 2)
# Probe 369 (-12.545 -21.097 2)
# Probe 370 (-12.545 -16.032 2)
# Probe 371 (-12.545 -10.968 2)
# Probe 372 (-12.545 -5.903 2)
# Probe 373 (-12.545 -0.839 2)
# Probe 374 (-12.545 4.226 2)
# Probe 375 (-12.545 9.29 2)
# Probe 376 (-12.545 14.355 2)
# Probe 377 (-12.545 19.419 2)
# Probe 378 (-12.545 24.484 2)
# Probe 379 (-12.545 29.548 2)
# Probe 380 (-12.545 34.613 2)
# Probe 381 (-12.545 39.677 2)
# Probe 382 (-12.545 44.742 2)
# Probe 383 (-12.545 49.806 2)
# Probe 384 (-12.545 54.871 2)
# Probe 385 (-12.545 59.935 2)
# Probe 386 (-12.545 65 2)
# Probe 387 (-7.424 -92 2)
# Probe 388 (-7.424 -86.935 2)
# Probe 389 (-7.424 -81.871 2)
# Probe 390 (-7.424 -76.806 2)
# Probe 391 (-7.424 -71.742 2)
# Probe 392 (-7.424 -66.677 2)
# Probe 393 (-7.424 -61.613 2)
# Probe 394 (-7.424 -56.548 2)
# Probe 395 (-7.424 -51.484 2)
# Probe 396 (-7.424 -46.419 2)
# Probe 397 (-7.424 -26.161 2)
# Probe 398 (-7.424 -21.097 2)
# Probe 399 (-7.424 -16.032 2)
# Probe 400 (-7.424 -10.968 2)
# Probe 401 (-7.424 -5.903 2)
# Probe 402 (-7.424 -0.839 2)
# Probe 403 (-7.424 4.226 2)
# Probe 404 (-7.424 9.29 2)
# Probe 405 (-7.424 14.355 2)
# Probe 406 (-7.424 19.419 2)
# Probe 407 (-7.424 24.484 2)
# Probe 408 (-7.424 29.548 2)
# Probe 409 (-7.424 34.613 2)
# Probe 410 (-7.424 39.677 2)
# Probe 411 (-7.424 44.742 2)
# Probe 412 (-7.424 49.806 2)
# Probe 413 (-7.424 54.871 2)
# Probe 414 (-7.424 59.935 2)
# Probe 415 (-7.424 65 2)
# Probe 416 (-2.303 -92 2)
# Probe 417 (-2.303 -86.935 2)
# Probe 418 (-2.303 -81.871 2)
# Probe 419 (-2.303 -76.806 2)
# Probe 420 (-2.303 -71.742 2)
# Probe 421 (-2.303 -66.677 2)
# Probe 422 (-2.303 -61.613 2)
# Probe 423 (-2.303 -56.548 2)
# Probe 424 (-2.303 -51.484 2)
# Probe 425 (-2.303 -46.419 2)
# Probe 426 (-2.303 -26.161 2)
# Probe 427 (-2.303 -21.097 2)
# Probe 428 (-2.303 -16.032 2)
# Probe 429 (-2.303 -10.968 2)
# Probe 430 (-2.303 -5.903 2)
# Probe 431 (-2.303 -0.839 2)
# Probe 432 (-2.303 4.226 2)
# Probe 433 (-2.303 9.29 2)
# Probe 434 (-2.303 14.355 2)
# Probe 435 (-2.303 19.419 2)
# Probe 436 (-2.303 24.484 2)
# Probe 437 (-2.303 29.548 2)
# Probe 438 (-2.303 34.613 2)
# Probe 439 (-2.303 39.677 2)
# Probe 440 (-2.303 44.742 2)
# Probe 441 (-2.303 49.806 2)
# Probe 442 (-2.303 54.871 2)
# Probe 443 (-2.303 59.935 2)
# Probe 444 (-2.303 65 2)
# Probe 445 (2.818 -92 2)
# Probe 446 (2.818 -86.935 2)
# Probe 447 (2.818 -81.871 2)
# Probe 448 (2.818 -76.806 2)
# Probe 449 (2.818 -71.742 2)
# Probe 450 (2.818 -66.677 2)
# Probe 451 (2.818 -61.613 2)
# Probe 452 (2.818 -56.548 2)
# Probe 453 (2.818 -51.484 2)
# Probe 454 (2.818 -46.419 2)
# Probe 455 (2.818 -26.161 2)
# Probe 456 (2.818 -21.097 2)
# Probe 457 (2.818 -16.032 2)
# Probe 458 (2.818 -10.968 2)
# Probe 459 (2.818 -5.903 2)
# Probe 460 (2.818 -0.839 2)
# Probe 461 (2.818 19.419 2)
# Probe 462 (2.818 24.484 2)
# Probe 463 (2.818 29.548 2)
# Probe 464 (2.818 34.613 2)
# Probe 465 (2.818 39.677 2)
# Probe 466 (2.818 44.742 2)
# Probe 467 (2.818 49.806 2)
# Probe 468 (2.818 54.871 2)
# Probe 469 (2.818 59.935 2)
# Probe 470 (2.818 65 2)
# Probe 471 (7.939 -92 2)
# Probe 472 (7.939 -86.935 2)
# Probe 473 (7.939 -81.871 2)
# Probe 474 (7.939 -76.806 2)
# Probe 475 (7.939 -71.742 2)
# Probe 476 (7.939 -66.677 2)
# Probe 477 (7.939 -61.613 2)
# Probe 478 (7.939 -56.548 2)
# Probe 479 (7.939 -51.484 2)
# Probe 480 (7.939 -46.419 2)
# Probe 481 (7.939 -41.355 2)
# Probe 482 (7.939 -36.29 2)
# Probe 483 (7.939 -31.226 2)
# Probe 484 (7.939 -26.161 2)
# Probe 485 (7.939 -21.097 2)
# Probe 486 (7.939 -16.032 2)
# Probe 487 (7.939 -10.968 2)
# Probe 488 (7.939 -5.903 2)
# Probe 489 (7.939 -0.839 2)
# Probe 490 (7.939 19.419 2)
# Probe 491 (7.939 24.484 2)
# Probe 492 (7.939 29.548 2)
# Probe 493 (7.939 34.613 2)
# Probe 494 (7.939 39.677 2)
# Probe 495 (7.939 44.742 2)
# Probe 496 (7.939 49.806 2)
# Probe 497 (7.939 54.871 2)
# Probe 498 (7.939 59.935 2)
# Probe 499 (7.939 65 2)
# Probe 500 (13.061 -92 2)
# Probe 501 (13.061 -86.935 2)
# Probe 502 (13.061 -81.871 2)
# Probe 503 (13.061 -76.806 2)
# Probe 504 (13.061 -71.742 2)
# Probe 505 (13.061 -66.677 2)
# Probe 506 (13.061 -61.613 2)
# Probe 507 (13.061 -56.548 2)
# Probe 508 (13.061 -51.484 2)
# Probe 509 (13.061 -46.419 2)
# Probe 510 (13.061 -41.355 2)
# Probe 511 (13.061 -36.29 2)
# Probe 512 (13.061 -31.226 2)
# Probe 513 (13.061 -26.161 2)
# Probe 514 (13.061 -21.097 2)
# Probe 515 (13.061 -16.032 2)
# Probe 516 (13.061 -10.968 2)
# Probe 517 (13.061 -5.903 2)
# Probe 518 (13.061 -0.839 2)
# Probe 519 (13.061 19.419 2)
# Probe 520 (13.061 24.484 2)
# Probe 521 (13.061 29.548 2)
# Probe 522 (13.061 34.613 2)
# Probe 523 (13.061 39.677 2)
# Probe 524 (13.061 44.742 2)
# Probe 525 (13.061 49.806 2)
# Probe 526 (13.061 54.871 2)
# Probe 527 (13.061 59.935 2)
# Probe 528 (13.061 65 2)
# Probe 529 (18.182 -92 2)
# Probe 530 (18.182 -86.935 2)
# Probe 531 (18.182 -81.871 2)
# Probe 532 (18.182 -76.806 2)
# Probe 533 (18.182 -71.742 2)
# Probe 534 (18.182 -66.677 2)
# Probe 535 (18.182 -61.613 2)
# Probe 536 (18.182 -56.548 2)
# Probe 537 (18.182 -51.484 2)
# Probe 538 (18.182 -46.419 2)
# Probe 539 (18.182 -41.355 2)
# Probe 540 (18.182 -36.29 2)
# Probe 541 (18.182 -31.226 2)
# Probe 542 (18.182 -26.161 2)
# Probe 543 (18.182 -21.097 2)
# Probe 544 (18.182 -16.032 2)
# Probe 545 (18.182 -10.968 2)
# Probe 546 (18.182 -5.903 2)
# Probe 547 (18.182 -0.839 2)
# Probe 548 (18.182 4.226 2)
# Probe 549 (18.182 9.29 2)
# Probe 550 (18.182 14.355 2)
# Probe 551 (18.182 19.419 2)
# Probe 552 (18.182 24.484 2)
# Probe 553 (18.182 29.548 2)
# Probe 554 (18.182 34.613 2)
# Probe 555 (18.182 39.677 2)
# Probe 556 (18.182 44.742 2)
# Probe 557 (18.182 49.806 2)
# Probe 558 (18.182 54.871 2)
# Probe 559 (18.182 59.935 2)
# Probe 560 (18.182 65 2)
# Probe 561 (23.303 -92 2)
# Probe 562 (23.303 -86.935 2)
# Probe 563 (23.303 -81.871 2)
# Probe 564 (23.303 -76.806 2)
# Probe 565 (23.303 -71.742 2)
# Probe 566 (23.303 -66.677 2)
# Probe 567 (23.303 -61.613 2)
# Probe 568 (23.303 -56.548 2)
# Probe 569 (23.303 -51.484 2)
# Probe 570 (23.303 -46.419 2)
# Probe 571 (23.303 -41.355 2)
# Probe 572 (23.303 -36.29 2)
# Probe 573 (23.303 -31.226 2)
# Probe 574 (23.303 -26.161 2)
# Probe 575 (23.303 -21.097 2)
# Probe 576 (23.303 -16.032 2)
# Probe 577 (23.303 -10.968 2)
# Probe 578 (23.303 -5.903 2)
# Probe 579 (23.303 -0.839 2)
# Probe 580 (23.303 4.226 2)
# Probe 581 (23.303 9.29 2)
# Probe 582 (23.303 14.355 2)
# Probe 583 (23.303 19.419 2)
# Probe 584 (23.303 24.484 2)
# Probe 585 (23.303 29.548 2)
# Probe 586 (23.303 34.613 2)
# Probe 587 (23.303 39.677 2)
# Probe 588 (23.303 44.742 2)
# Probe 589 (23.303 49.806 2)
# Probe 590 (23.303 54.871 2)
# Probe 591 (23.303 59.935 2)
# Probe 592 (23.303 65 2)
# Probe 593 (28.424 -92 2)
# Probe 594 (28.424 -86.935 2)
# Probe 595 (28.424 -81.871 2)
# Probe 596 (28.424 -76.806 2)
# Probe 597 (28.424 -71.742 2)
# Probe 598 (28.424 -66.677 2)
# Probe 599 (28.424 -61.613 2)
# Probe 600 (28.424 -56.548 2)
# Probe 601 (28.424 -51.484 2)
# Probe 602 (28.424 -46.419 2)
# Probe 603 (28.424 -41.355 2)
# Probe 604 (28.424 -36.29 2)
# Probe 605 (28.424 -31.226 2)
# Probe 606 (28.424 -26.161 2)
# Probe 607 (28.424 24.484 2)
# Probe 608 (28.424 29.548 2)
# Probe 609 (28.424 34.613 2)
# Probe 610 (28.424 39.677 2)
# Probe 611 (28.424 44.742 2)
# Probe 612 (28.424 49.806 2)
# Probe 613 (28.424 54.871 2)
# Probe 614 (28.424 59.935 2)
# Probe 615 (28.424 65 2)
# Probe 616 (33.545 -92 2)
# Probe 617 (33.545 -86.935 2)
# Probe 618 (33.545 -81.871 2)
# Probe 619 (33.545 -76.806 2)
# Probe 620 (33.545 -71.742 2)
# Probe 621 (33.545 -66.677 2)
# Probe 622 (33.545 -61.613 2)
# Probe 623 (33.545 -56.548 2)
# Probe 624 (33.545 -51.484 2)
# Probe 625 (33.545 -46.419 2)
# Probe 626 (33.545 -41.355 2)
# Probe 627 (33.545 -36.29 2)
# Probe 628 (33.545 -31.226 2)
# Probe 629 (33.545 -26.161 2)
# Probe 630 (33.545 24.484 2)
# Probe 631 (33.545 29.548 2)
# Probe 632 (33.545 34.613 2)
# Probe 633 (33.545 39.677 2)
# Probe 634 (33.545 44.742 2)
# Probe 635 (33.545 49.806 2)
# Probe 636 (33.545 54.871 2)
# Probe 637 (33.545 59.935 2)
# Probe 638 (33.545 65 2)
# Probe 639 (38.667 -92 2)
# Probe 640 (38.667 -86.935 2)
# Probe 641 (38.667 -81.871 2)
# Probe 642 (38.667 -76.806 2)
# Probe 643 (38.667 -71.742 2)
# Probe 644 (38.667 -66.677 2)
# Probe 645 (38.667 -61.613 2)
# Probe 646 (38.667 -56.548 2)
# Probe 647 (38.667 -51.484 2)
# Probe 648 (38.667 -46.419 2)
# Probe 649 (38.667 -41.355 2)
# Probe 650 (38.667 -36.29 2)
# Probe 651 (38.667 -31.226 2)
# Probe 652 (38.667 -26.161 2)
# Probe 653 (38.667 -10.968 2)
# Probe 654 (38.667 -5.903 2)
# Probe 655 (38.667 -0.839 2)
# Probe 656 (38.667 4.226 2)
# Probe 657 (38.667 24.484 2)
# Probe 658 (38.667 29.548 2)
# Probe 659 (38.667 34.613 2)
# Probe 660 (38.667 39.677 2)
# Probe 661 (38.667 44.742 2)
# Probe 662 (38.667 49.806 2)
# Probe 663 (38.667 54.871 2)
# Probe 664 (38.667 59.935 2)
# Probe 665 (38.667 65 2)
# Probe 666 (43.788 -92 2)
# Probe 667 (43.788 -86.935 2)
# Probe 668 (43.788 -81.871 2)
# Probe 669 (43.788 -76.806 2)
# Probe 670 (43.788 -71.742 2)
# Probe 671 (43.788 -66.677 2)
# Probe 672 (43.788 -61.613 2)
# Probe 673 (43.788 -56.548 2)
# Probe 674 (43.788 -51.484 2)
# Probe 675 (43.788 -46.419 2)
# Probe 676 (43.788 -41.355 2)
# Probe 677 (43.788 -36.29 2)
# Probe 678 (43.788 -31.226 2)
# Probe 679 (43.788 -26.161 2)
# Probe 680 (43.788 -10.968 2)
# Probe 681 (43.788 -5.903 2)
# Probe 682 (43.788 -0.839 2)
# Probe 683 (43.788 4.226 2)
# Probe 684 (43.788 24.484 2)
# Probe 685 (43.788 29.548 2)
# Probe 686 (43.788 34.613 2)
# Probe 687 (43.788 39.677 2)
# Probe 688 (43.788 44.742 2)
# Probe 689 (43.788 49.806 2)
# Probe 690 (43.788 54.871 2)
# Probe 691 (43.788 59.935 2)
# Probe 692 (43.788 65 2)
# Probe 693 (48.909 -92 2)
# Probe 694 (48.909 -86.935 2)
# Probe 695 (48.909 -81.871 2)
# Probe 696 (48.909 -76.806 2)
# Probe 697 (48.909 -71.742 2)
# Probe 698 (48.909 -66.677 2)
# Probe 699 (48.909 -61.613 2)
# Probe 700 (48.909 -56.548 2)
# Probe 701 (48.909 -51.484 2)
# Probe 702 (48.909 -46.419 2)
# Probe 703 (48.909 -41.355 2)
# Probe 704 (48.909 -36.29 2)
# Probe 705 (48.909 -31.226 2)
# Probe 706 (48.909 -26.161 2)
# Probe 707 (48.909 -10.968 2)
# Probe 708 (48.909 -5.903 2)
# Probe 709 (48.909 -0.839 2)
# Probe 710 (48.909 4.226 2)
# Probe 711 (48.909 24.484 2)
# Probe 712 (48.909 29.548 2)
# Probe 713 (48.909 34.613 2)
# Probe 714 (48.909 39.677 2)
# Probe 715 (48.909 44.742 2)
# Probe 716 (48.909 49.806 2)
# Probe 717 (48.909 54.871 2)
# Probe 718 (48.909 59.935 2)
# Probe 719 (48.909 65 2)
# Probe 720 (54.03 -92 2)
# Probe 721 (54.03 -86.935 2)
# Probe 722 (54.03 -81.871 2)
# Probe 723 (54.03 -76.806 2)
# Probe 724 (54.03 -71.742 2)
# Probe 725 (54.03 -66.677 2)
# Probe 726 (54.03 -61.613 2)
# Probe 727 (54.03 -56.548 2)
# Probe 728 (54.03 -51.484 2)
# Probe 729 (54.03 -46.419 2)
# Probe 730 (54.03 -41.355 2)
# Probe 731 (54.03 -36.29 2)
# Probe 732 (54.03 -31.226 2)
# Probe 733 (54.03 -26.161 2)
# Probe 734 (54.03 24.484 2)
# Probe 735 (54.03 29.548 2)
# Probe 736 (54.03 34.613 2)
# Probe 737 (54.03 39.677 2)
# Probe 738 (54.03 44.742 2)
# Probe 739 (54.03 49.806 2)
# Probe 740 (54.03 54.871 2)
# Probe 741 (54.03 59.935 2)
# Probe 742 (54.03 65 2)
# Probe 743 (59.152 -92 2)
# Probe 744 (59.152 -86.935 2)
# Probe 745 (59.152 -81.871 2)
# Probe 746 (59.152 -76.806 2)
# Probe 747 (59.152 -71.742 2)
# Probe 748 (59.152 -66.677 2)
# Probe 749 (59.152 -61.613 2)
# Probe 750 (59.152 -56.548 2)
# Probe 751 (59.152 -51.484 2)
# Probe 752 (59.152 -46.419 2)
# Probe 753 (59.152 -41.355 2)
# Probe 754 (59.152 -36.29 2)
# Probe 755 (59.152 -31.226 2)
# Probe 756 (59.152 -26.161 2)
# Probe 757 (59.152 24.484 2)
# Probe 758 (59.152 29.548 2)
# Probe 759 (59.152 34.613 2)
# Probe 760 (59.152 39.677 2)
# Probe 761 (59.152 44.742 2)
# Probe 762 (59.152 49.806 2)
# Probe 763 (59.152 54.871 2)
# Probe 764 (59.152 59.935 2)
# Probe 765 (59.152 65 2)
# Probe 766 (64.273 -92 2)
# Probe 767 (64.273 -86.935 2)
# Probe 768 (64.273 -81.871 2)
# Probe 769 (64.273 -76.806 2)
# Probe 770 (64.273 -71.742 2)
# Probe 771 (64.273 -66.677 2)
# Probe 772 (64.273 -61.613 2)
# Probe 773 (64.273 -56.548 2)
# Probe 774 (64.273 -51.484 2)
# Probe 775 (64.273 -46.419 2)
# Probe 776 (64.273 -41.355 2)
# Probe 777 (64.273 -36.29 2)
# Probe 778 (64.273 -31.226 2)
# Probe 779 (64.273 -26.161 2)
# Probe 780 (64.273 24.484 2)
# Probe 781 (64.273 29.548 2)
# Probe 782 (64.273 34.613 2)
# Probe 783 (64.273 39.677 2)
# Probe 784 (64.273 44.742 2)
# Probe 785 (64.273 49.806 2)
# Probe 786 (64.273 54.871 2)
# Probe 787 (64.273 59.935 2)
# Probe 788 (64.273 65 2)
# Probe 789 (69.394 -92 2)
# Probe 790 (69.394 -86.935 2)
# Probe 791 (69.394 -81.871 2)
# Probe 792 (69.394 -76.806 2)
# Probe 793 (69.394 -71.742 2)
# Probe 794 (69.394 -66.677 2)
# Probe 795 (69.394 -61.613 2)
# Probe 796 (69.394 -56.548 2)
# Probe 797 (69.394 -51.484 2)
# Probe 798 (69.394 -46.419 2)
# Probe 799 (69.394 -41.355 2)
# Probe 800 (69.394 -36.29 2)
# Probe 801 (69.394 -31.226 2)
# Probe 802 (69.394 -26.161 2)
# Probe 803 (69.394 -21.097 2)
# Probe 804 (69.394 -16.032 2)
# Probe 805 (69.394 -10.968 2)
# Probe 806 (69.394 -5.903 2)
# Probe 807 (69.394 -0.839 2)
# Probe 808 (69.394 4.226 2)
# Probe 809 (69.394 9.29 2)
# Probe 810 (69.394 14.355 2)
# Probe 811 (69.394 19.419 2)
# Probe 812 (69.394 24.484 2)
# Probe 813 (69.394 29.548 2)
# Probe 814 (69.394 34.613 2)
# Probe 815 (69.394 39.677 2)
# Probe 816 (69.394 44.742 2)
# Probe 817 (69.394 49.806 2)
# Probe 818 (69.394 54.871 2)
# Probe 819 (69.394 59.935 2)
# Probe 820 (69.394 65 2)
# Probe 821 (74.515 -92 2)
# Probe 822 (74.515 -86.935 2)
# Probe 823 (74.515 -81.871 2)
# Probe 824 (74.515 -76.806 2)
# Probe 825 (74.515 -71.742 2)
# Probe 826 (74.515 -66.677 2)
# Probe 827 (74.515 -61.613 2)
# Probe 828 (74.515 -56.548 2)
# Probe 829 (74.515 -51.484 2)
# Probe 830 (74.515 -46.419 2)
# Probe 831 (74.515 -41.355 2)
# Probe 832 (74.515 -36.29 2)
# Probe 833 (74.515 -31.226 2)
# Probe 834 (74.515 -26.161 2)
# Probe 835 (74.515 -21.097 2)
# Probe 836 (74.515 -16.032 2)
# Probe 837 (74.515 -10.968 2)
# Probe 838 (74.515 -5.903 2)
# Probe 839 (74.515 -0.839 2)
# Probe 840 (74.515 4.226 2)
# Probe 841 (74.515 9.29 2)
# Probe 842 (74.515 14.355 2)
# Probe 843 (74.515 19.419 2)
# Probe 844 (74.515 24.484 2)
# Probe 845 (74.515 29.548 2)
# Probe 846 (74.515 34.613 2)
# Probe 847 (74.515 39.677 2)
# Probe 848 (74.515 44.742 2)
# Probe 849 (74.515 49.806 2)
# Probe 850 (74.515 54.871 2)
# Probe 851 (74.515 59.935 2)
# Probe 852 (74.515 65 2)
# Probe 853 (79.636 -92 2)
# Probe 854 (79.636 -86.935 2)
# Probe 855 (79.636 -81.871 2)
# Probe 856 (79.636 -76.806 2)
# Probe 857 (79.636 -71.742 2)
# Probe 858 (79.636 -66.677 2)
# Probe 859 (79.636 -61.613 2)
# Probe 860 (79.636 -56.548 2)
# Probe 861 (79.636 -51.484 2)
# Probe 862 (79.636 -46.419 2)
# Probe 863 (79.636 -41.355 2)
# Probe 864 (79.636 -36.29 2)
# Probe 865 (79.636 -31.226 2)
# Probe 866 (79.636 -26.161 2)
# Probe 867 (79.636 -21.097 2)
# Probe 868 (79.636 -16.032 2)
# Probe 869 (79.636 -10.968 2)
# Probe 870 (79.636 -5.903 2)
# Probe 871 (79.636 -0.839 2)
# Probe 872 (79.636 4.226 2)
# Probe 873 (79.636 9.29 2)
# Probe 874 (79.636 14.355 2)
# Probe 875 (79.636 19.419 2)
# Probe 876 (79.636 24.484 2)
# Probe 877 (79.636 29.548 2)
# Probe 878 (79.636 34.613 2)
# Probe 879 (79.636 39.677 2)
# Probe 880 (79.636 44.742 2)
# Probe 881 (79.636 49.806 2)
# Probe 882 (79.636 54.871 2)
# Probe 883 (79.636 59.935 2)
# Probe 884 (79.636 65 2)
# Probe 885 (84.758 -92 2)
# Probe 886 (84.758 -86.935 2)
# Probe 887 (84.758 -81.871 2)
# Probe 888 (84.758 -76.806 2)
# Probe 889 (84.758 -71.742 2)
# Probe 890 (84.758 -66.677 2)
# Probe 891 (84.758 -61.613 2)
# Probe 892 (84.758 -56.548 2)
# Probe 893 (84.758 -51.484 2)
# Probe 894 (84.758 -46.419 2)
# Probe 895 (84.758 -41.355 2)
# Probe 896 (84.758 -36.29 2)
# Probe 897 (84.758 -31.226 2)
# Probe 898 (84.758 -26.161 2)
# Probe 899 (84.758 -21.097 2)
# Probe 900 (84.758 -16.032 2)
# Probe 901 (84.758 -10.968 2)
# Probe 902 (84.758 -5.903 2)
# Probe 903 (84.758 -0.839 2)
# Probe 904 (84.758 4.226 2)
# Probe 905 (84.758 9.29 2)
# Probe 906 (84.758 14.355 2)
# Probe 907 (84.758 19.419 2)
# Probe 908 (84.758 24.484 2)
# Probe 909 (84.758 29.548 2)
# Probe 910 (84.758 34.613 2)
# Probe 911 (84.758 39.677 2)
# Probe 912 (84.758 44.742 2)
# Probe 913 (84.758 49.806 2)
# Probe 914 (84.758 54.871 2)
# Probe 915 (84.758 59.935 2)
# Probe 916 (84.758 65 2)
# Probe 917 (89.879 -92 2)
# Probe 918 (89.879 -86.935 2)
# Probe 919 (89.879 -81.871 2)
# Probe 920 (89.879 -76.806 2)
# Probe 921 (89.879 -71.742 2)
# Probe 922 (89.879 -66.677 2)
# Probe 923 (89.879 -61.613 2)
# Probe 924 (89.879 -56.548 2)
# Probe 925 (89.879 -51.484 2)
# Probe 926 (89.879 -46.419 2)
# Probe 927 (89.879 -41.355 2)
# Probe 928 (89.879 -36.29 2)
# Probe 929 (89.879 -31.226 2)
# Probe 930 (89.879 -26.161 2)
# Probe 931 (89.879 -21.097 2)
# Probe 932 (89.879 -16.032 2)
# Probe 933 (89.879 -10.968 2)
# Probe 934 (89.879 -5.903 2)
# Probe 935 (89.879 -0.839 2)
# Probe 936 (89.879 4.226 2)
# Probe 937 (89.879 9.29 2)
# Probe 938 (89.879 14.355 2)
# Probe 939 (89.879 19.419 2)
# Probe 940 (89.879 24.484 2)
# Probe 941 (89.879 29.548 2)
# Probe 942 (89.879 34.613 2)
# Probe 943 (89.879 39.677 2)
# Probe 944 (89.879 44.742 2)
# Probe 945 (89.879 49.806 2)
# Probe 946 (89.879 54.871 2)
# Probe 947 (89.879 59.935 2)
# Probe 948 (89.879 65 2)
# Probe 949 (95 -92 2)
# Probe 950 (95 -86.935 2)
# Probe 951 (95 -81.871 2)
# Probe 952 (95 -76.806 2)
# Probe 953 (95 -71.742 2)
# Probe 954 (95 -66.677 2)
# Probe 955 (95 -61.613 2)
# Probe 956 (95 -56.548 2)
# Probe 957 (95 -51.484 2)
# Probe 958 (95 -46.419 2)
# Probe 959 (95 -41.355 2)
# Probe 960 (95 -36.29 2)
# Probe 961 (95 -31.226 2)
# Probe 962 (95 -26.161 2)
# Probe 963 (95 -21.097 2)
# Probe 964 (95 -16.032 2)
# Probe 965 (95 -10.968 2)
# Probe 966 (95 -5.903 2)
# Probe 967 (95 -0.839 2)
# Probe 968 (95 4.226 2)
# Probe 969 (95 9.29 2)
# Probe 970 (95 14.355 2)
# Probe 971 (95 19.419 2)
# Probe 972 (95 24.484 2)
# Probe 973 (95 29.548 2)
# Probe 974 (95 34.613 2)
# Probe 975 (95 39.677 2)
# Probe 976 (95 44.742 2)
# Probe 977 (95 49.806 2)
# Probe 978 (95 54.871 2)
# Probe 979 (95 59.935 2)
# Probe 980 (95 65 2)